   96
Geometry Step: 230
    B     -5.08113625     14.21498209      1.73010005      2.73053696
    B      4.91865829     14.21498272      1.73010005      2.73053695
    B     -0.08123979     22.83297711      1.73010005      2.73070263
    B     20.05027969     11.40303906      1.73010005      2.73053696
    B     10.05048515     11.40304095      1.73010005      2.73053695
    B     15.05038105      2.78504531      1.73010005      2.73070263
    O     16.21244620      3.55036841      1.73010005      6.23179900
    C     13.85176058      0.55399947      1.73010005      4.03182891
    C     15.75057445      4.89347708      1.73010005      3.81999316
    C     16.47184929      6.07220347      1.73010005      4.12927284
    C     15.76037128      7.29168463      1.73010005      3.99531761
    O     18.81013518     12.03502181      1.73010005      6.23209078
    C     22.57893844     11.42629523      1.73010005      4.03182715
    C     17.86866982     10.96882839      1.73010005      3.82087604
    C     16.48614085     11.00882225      1.73010005      4.12856166
    C     15.77915448      9.78582285      1.73010005      3.99548531
    O     10.14281900     10.01470468      1.73010005      6.23181335
    C      8.66628501     13.53134786      1.73010005      4.03191169
    C     11.53768431      9.75290157      1.73010005      3.81933394
    C     12.20256242      8.54194423      1.73010005      4.12955450
    C     13.61377234      8.55316160      1.73010005      3.99514691
    O     -1.24330476     22.06765372      1.73010005      6.23179900
    C      1.11738049     25.06402295      1.73010005      4.03182891
    C     -0.78143267     20.72454516      1.73010005      3.81999316
    C     -1.50270721     19.54581858      1.73010005      4.12927284
    C     -0.79122888     18.32633760      1.73010005      3.99531761
    O     -3.84099159     13.58299964      1.73010005      6.23209078
    C     -7.60979491     14.19172575      1.73010005      4.03182715
    C     -2.89952648     14.64919329      1.73010005      3.82087605
    C     -1.51699750     14.60919979      1.73010005      4.12856166
    C     -0.81001145     15.83219938      1.73010005      3.99548531
    O      4.82632411     15.60331896      1.73010005      6.23181335
    C      6.30285852     12.08667598      1.73010005      4.03191169
    C      3.43145873     15.86512174      1.73010005      3.81933394
    C      2.76658031     17.07607891      1.73010005      4.12955449
    C      1.35537039     17.06486118      1.73010005      3.99514691
    O     -4.98880231     15.60331834      1.73010005      6.23181335
    C     -6.46533575     12.08667499      1.73010005      4.03191169
    C     -3.59393696     15.86512131      1.73010005      3.81933394
    C     -2.92905869     17.07607855      1.73010005      4.12955449
    C     -1.51784877     17.06486096      1.73010005      3.99514692
    O      1.08082534     22.06765397      1.73010005      6.23179901
    C     -1.27986038     25.06402288      1.73010005      4.03182891
    C      0.61895355     20.72454530      1.73010005      3.81999317
    C      1.34022835     19.54581887      1.73010005      4.12927283
    C      0.62875030     18.32633772      1.73010005      3.99531761
    O      3.67851371     13.58300010      1.73010005      6.23209079
    C      7.44731691     14.19172713      1.73010005      4.03182715
    C      2.73704843     14.64919363      1.73010005      3.82087605
    C      1.35451945     14.60919997      1.73010005      4.12856166
    C      0.64753324     15.83219948      1.73010005      3.99548531
    O     19.95794542     10.01470283      1.73010005      6.23181334
    C     21.43447928     13.53134600      1.73010005      4.03191169
    C     18.56308000      9.75290020      1.73010005      3.81933395
    C     17.89820142      8.54194314      1.73010005      4.12955449
    C     16.48699149      8.55316108      1.73010005      3.99514692
    O     13.88831611      3.55036872      1.73010005      6.23179900
    C     16.24900145      0.55399953      1.73010005      4.03182891
    C     14.35018822      4.89347728      1.73010005      3.81999317
    C     13.62891373      6.07220390      1.73010005      4.12927283
    C     14.34039210      7.29168487      1.73010005      3.99531761
    O     11.29062988     12.03502328      1.73010005      6.23209078
    C      7.52182662     11.42629671      1.73010005      4.03182715
    C     12.23209491     10.96882951      1.73010005      3.82087605
    C     13.61462390     11.00882281      1.73010005      4.12856165
    C     14.32160979      9.78582312      1.73010005      3.99548531
    C     21.35940869     12.12728418      1.73010005      4.09040821
    C      8.74135615     12.12728606      1.73010005      4.09040820
    C     15.05038099      1.28917014      1.73010005      4.09052476
    C     -6.39026515     13.49073681      1.73010005      4.09040821
    C      6.22778738     13.49073778      1.73010005      4.09040820
    C     -0.08123993     24.32885227      1.73010005      4.09052476
    H     12.88989702      1.09285991      1.73010005      0.94977802
    H     22.56474150     10.32382027      1.73010005      0.94984918
    H      9.59798996     14.12086429      1.73010005      0.94988026
    H      2.07924404     24.52516250      1.73010005      0.94977802
    H     -7.59559797     15.29420072      1.73010005      0.94984918
    H      5.37115358     11.49715954      1.73010005      0.94988026
    H     -5.53363055     11.49715896      1.73010005      0.94988026
    H     -2.24172392     24.52516240      1.73010005      0.94977802
    H      7.43311954     15.29420209      1.73010005      0.94984919
    H     20.50277408     14.12086202      1.73010005      0.94988026
    H     17.21086499      1.09286001      1.73010005      0.94977802
    H      7.53602400     10.32382175      1.73010005      0.94984919
    H     17.57490292      6.08633161      1.73010005      0.93129910
    H     15.92646729     11.95932797      1.73010005      0.93148915
    H     11.66691582      7.57758886      1.73010005      0.93133256
    H     -2.60576084     19.53169015      1.73010005      0.93129910
    H     -0.95732369     13.65869421      1.73010005      0.93148915
    H      3.30222666     18.04043442      1.73010005      0.93133256
    H     -3.46470512     18.04043402      1.73010005      0.93133256
    H      2.44328198     19.53169072      1.73010005      0.93129911
    H      0.79484572     13.65869434      1.73010005      0.93148915
    H     18.43384759      7.57758752      1.73010005      0.93133256
    H     12.52586011      6.08633235      1.73010005      0.93129911
    H     14.17429787     11.95932829      1.73010005      0.93148915
