   96
Geometry Step: 67
    B     -5.08695105     14.40714388      1.73010005      2.72901179
    B      4.92480998     14.40716043      1.73010005      2.72901226
    B     -0.08105852     23.07760672      1.73010005      2.72901179
    B     20.02633220     11.46859925      1.73010005      2.72901179
    B     10.01457117     11.46858538      1.73010005      2.72901226
    B     15.02043735      2.79813775      1.73010005      2.72901179
    O     16.18050219      3.56951917      1.73010005      6.23312557
    C     13.82664499      0.55373561      1.73010005      4.03200466
    C     15.72036224      4.91747544      1.73010005      3.82013038
    C     16.43913357      6.10075202      1.73010005      4.12804648
    C     15.73182373      7.32460491      1.73010005      3.99513591
    O     18.77826126     12.08754801      1.73010005      6.23312503
    C     22.56692863     11.55691316      1.73010005      4.03200476
    C     17.84097332     11.01507120      1.73010005      3.82013009
    C     16.45684069     11.04589812      1.73010005      4.12804667
    C     15.75061681      9.82141869      1.73010005      3.99513607
    O     10.10257621     10.07824983      1.73010005      6.23312490
    C      8.66777836     13.62464456      1.73010005      4.03200466
    C     11.50001056      9.80276995      1.73010005      3.82013016
    C     12.16537503      8.58866006      1.73010005      4.12804691
    C     13.57891710      8.58928820      1.73010005      3.99513606
    O     -1.24112317     22.30622501      1.73010005      6.23312557
    C      1.11273364     25.32200886      1.73010005      4.03200466
    C     -0.78098287     20.95826884      1.73010005      3.82013039
    C     -1.49975387     19.77499207      1.73010005      4.12804648
    C     -0.79244370     18.55113937      1.73010005      3.99513592
    O     -3.83887996     13.78819543      1.73010005      6.23312503
    C     -7.62754739     14.31882979      1.73010005      4.03200477
    C     -2.90159229     14.86067249      1.73010005      3.82013010
    C     -1.51745965     14.82984595      1.73010005      4.12804667
    C     -0.81123610     16.05432558      1.73010005      3.99513608
    O      4.83680458     15.79749596      1.73010005      6.23312489
    C      6.27160289     12.25110142      1.73010005      4.03200466
    C      3.43937016     16.07297547      1.73010005      3.82013017
    C      2.77400535     17.28708518      1.73010005      4.12804691
    C      1.36046328     17.28645665      1.73010005      3.99513607
    O     -4.99894756     15.79748021      1.73010005      6.23312557
    C     -6.43376413     12.25108829      1.73010005      4.03200466
    C     -3.60151321     16.07296545      1.73010005      3.82013038
    C     -2.93615129     17.28707797      1.73010005      4.12804648
    C     -1.52260868     17.28645612      1.73010005      3.99513591
    O      1.07900230     22.30621996      1.73010005      6.23312503
    C     -1.27487466     25.32198471      1.73010005      4.03200476
    C      0.61885410     20.95826639      1.73010005      3.82013009
    C      1.33761731     19.77498583      1.73010005      4.12804667
    C      0.63029894     18.55113829      1.73010005      3.99513607
    O      3.67674155     13.78820725      1.73010005      6.23312490
    C      7.46540842     14.31883320      1.73010005      4.03200466
    C      2.73945180     14.86068095      1.73010005      3.82013016
    C      1.35531956     14.82984853      1.73010005      4.12804691
    C      0.64909250     16.05432594      1.73010005      3.99513606
    O     19.93832836     10.07826294      1.73010005      6.23312557
    C     21.37314538     13.62465466      1.73010005      4.03200466
    C     18.54089393      9.80277805      1.73010005      3.82013039
    C     17.87553167      8.58866572      1.73010005      4.12804648
    C     16.46198906      8.58928795      1.73010005      3.99513591
    O     13.86037673      3.56952480      1.73010005      6.23312503
    C     16.21425329      0.55375976      1.73010005      4.03200476
    C     14.32052528      4.91747826      1.73010005      3.82013009
    C     13.60176239      6.10075902      1.73010005      4.12804667
    C     14.30908109      7.32460637      1.73010005      3.99513608
    O     11.26263975     12.08753824      1.73010005      6.23312490
    C      7.47397283     11.55691279      1.73010005      4.03200466
    C     12.19992923     11.01506429      1.73010005      3.82013017
    C     13.58406148     11.04589633      1.73010005      4.12804691
    C     14.29028821      9.82141873      1.73010005      3.99513607
    C     21.32342201     12.21746920      1.73010005      4.08963605
    C      8.71748402     12.21745911      1.73010005      4.08963630
    C     15.02044167      1.30039004      1.73010005      4.08963605
    C     -6.38404077     13.65827376      1.73010005      4.08963605
    C      6.22189723     13.65828687      1.73010005      4.08963630
    C     -0.08106303     24.57535442      1.73010005      4.08963605
    H     12.86075440      1.08588948      1.73010005      0.95040915
    H     22.58898794     10.45434989      1.73010005      0.95040916
    H      9.61159057     14.19503983      1.73010005      0.95040897
    H      2.07862423     24.78985498      1.73010005      0.95040915
    H     -7.64960669     15.42139307      1.73010005      0.95040916
    H      5.32779068     11.68070616      1.73010005      0.95040897
    H     -5.48996006     11.68067944      1.73010005      0.95040915
    H     -2.24075211     24.78980697      1.73010005      0.95040916
    H      7.48747913     15.42139617      1.73010005      0.95040897
    H     20.42934131     14.19506351      1.73010005      0.95040915
    H     17.18013074      1.08593750      1.73010005      0.95040916
    H      7.45190212     10.45434981      1.73010005      0.95040897
    H     17.54231851      6.11461875      1.73010005      0.93182416
    H     15.89323075     11.99434628      1.73010005      0.93182410
    H     11.62579550      7.62633804      1.73010005      0.93182400
    H     -2.60293881     19.76112503      1.73010005      0.93182416
    H     -0.95384945     13.88139795      1.73010005      0.93182410
    H      3.31358461     18.24940735      1.73010005      0.93182400
    H     -3.47573482     18.24939752      1.73010005      0.93182416
    H      2.44080247     19.76110938      1.73010005      0.93182410
    H      0.79171401     13.88139794      1.73010005      0.93182400
    H     18.41511493      7.62634602      1.73010005      0.93182416
    H     12.49857723      6.11463577      1.73010005      0.93182410
    H     14.14766730     11.99434677      1.73010005      0.93182400
