18
Lattice="90.2481003 0.0 0.0 -45.1240501 78.1571503 0.0 0.0 0.0 30.0" Properties=species:S:1:pos:R:3:initial_charges:R:1 ffname=BNFF energy=183.43749843890805 pbc="T T T"
Y       -1.13887826      15.42203775       1.73010000      -0.13644889
Y       13.92443490       6.72518745       1.73010000       0.03312805
Y      -14.32622829      41.83904243       1.73010000      -0.00415531
Y        0.64491121      32.62267019       1.73010000       0.35663183
Y      -27.72007961      67.92066474       1.73010000       0.00000559
Y      -12.64946197      59.21962750       1.73010000      -0.09617707
Y       27.92887969      16.87009488       1.73010000      -0.35663372
Y       43.39607915       8.51292563       1.73010000       0.00416221
Y       18.14852461      31.43484676       1.73010000      -0.00000198
Y       26.81188736      46.44015576       1.73010000      -0.06775794
Y        1.56419690      69.36202259       1.73010000       0.07211677
Y       17.03137863      61.00481002       1.73010000       0.13139259
Y       57.60967605      18.65540586       1.73010000      -0.00000378
Y       72.68028515       9.95436010       1.73010000       0.20232700
Y       44.31550205      45.25237207       1.73010000      -0.20649767
Y       59.28662545      36.03597483       1.73010000       0.08761685
Y       31.03573833      71.14983204       1.73010000       0.13644983
Y       46.09907285      62.45302488       1.73010002       0.06587785
