   96
Geometry Step: 61
    B     -5.05895163     14.31965844      1.73010005      2.73138807
    B      4.89778014     14.31967548      1.73010005      2.73138850
    B     -0.08057331     22.94246527      1.73010005      2.73138807
    B     19.90905361     11.40144876      1.73010005      2.73138807
    B      9.95232184     11.40143441      1.73010005      2.73138850
    B     14.93067297      2.77864328      1.73010005      2.73138807
    O     16.09354064      3.54153984      1.73010005      6.23128769
    C     13.73012169      0.55297470      1.73010005      4.03176361
    C     15.63095109      4.88276058      1.73010005      3.82003073
    C     16.35337072      6.05970099      1.73010005      4.12969333
    C     15.64069920      7.27758742      1.73010005      3.99541280
    O     18.66692903     12.02706697      1.73010005      6.23128720
    C     22.43680503     11.47454138      1.73010005      4.03176373
    C     17.73669964     10.95583602      1.73010005      3.82003040
    C     16.35623020     10.99299025      1.73010005      4.12969354
    C     15.65785451      9.76685060      1.73010005      3.99541297
    O     10.03157760     10.01291386      1.73010005      6.23128708
    C      8.62513312     13.55398011      1.73010005      4.03176359
    C     11.42440368      9.74292355      1.73010005      3.82003047
    C     12.08245683      8.52882238      1.73010005      4.12969377
    C     13.49351261      8.53707721      1.73010005      3.99541296
    O     -1.24344079     22.17956841      1.73010005      6.23128769
    C      1.11997777     25.16813385      1.73010005      4.03176361
    C     -0.78085088     20.83834778      1.73010005      3.82003073
    C     -1.50327018     19.66140717      1.73010005      4.12969332
    C     -0.79059833     18.44352093      1.73010005      3.99541281
    O     -3.81682689     13.69404055      1.73010005      6.23128720
    C     -7.58670295     14.24656565      1.73010005      4.03176373
    C     -2.88659777     14.76527175      1.73010005      3.82003040
    C     -1.50612832     14.72811790      1.73010005      4.12969353
    C     -0.80775296     15.95425775      1.73010005      3.99541298
    O      4.81852403     15.70819601      1.73010005      6.23128708
    C      6.22496897     12.16712995      1.73010005      4.03176359
    C      3.42569787     15.97818595      1.73010005      3.82003048
    C      2.76764439     17.19228694      1.73010005      4.12969377
    C      1.35658860     17.18403172      1.73010005      3.99541296
    O     -4.97969765     15.70817967      1.73010005      6.23128769
    C     -6.38616150     12.16711624      1.73010005      4.03176361
    C     -3.58687164     15.97817573      1.73010005      3.82003073
    C     -2.92882115     17.19227968      1.73010005      4.12969333
    C     -1.51776481     17.18403125      1.73010005      3.99541280
    O      1.08229024     22.17956292      1.73010005      6.23128720
    C     -1.28114897     25.16810851      1.73010005      4.03176373
    C      0.61969171     20.83834517      1.73010005      3.82003040
    C      1.34210293     19.66140069      1.73010005      4.12969354
    C      0.62942269     18.44351977      1.73010005      3.99541297
    O      3.65565820     13.69405269      1.73010005      6.23128708
    C      7.42553377     14.24656914      1.73010005      4.03176359
    C      2.72542668     14.76528031      1.73010005      3.82003048
    C      1.34495765     14.72812045      1.73010005      4.12969377
    C      0.64657864     15.95425802      1.73010005      3.99541296
    O     19.82979928     10.01292756      1.73010005      6.23128769
    C     21.23626359     13.55399079      1.73010005      4.03176361
    C     18.43697319      9.74293185      1.73010005      3.82003073
    C     17.77892237      8.52882809      1.73010005      4.12969332
    C     16.36786602      8.53707690      1.73010005      3.99541281
    O     13.76780962      3.54154591      1.73010005      6.23128719
    C     16.13124843      0.55300003      1.73010005      4.03176373
    C     14.23040850      4.88276356      1.73010005      3.82003040
    C     13.50799760      6.05970824      1.73010005      4.12969353
    C     14.22067818      7.27758896      1.73010005      3.99541298
    O     11.19444395     12.02705688      1.73010005      6.23128708
    C      7.42456831     11.47454093      1.73010005      4.03176359
    C     12.12467518     10.95582901      1.73010005      3.82003048
    C     13.50514423     10.99298849      1.73010005      4.12969377
    C     14.20352290      9.76685073      1.73010005      3.99541296
    C     21.20384704     12.14899282      1.73010005      4.09089934
    C      8.65753128     12.14898221      1.73010005      4.09089960
    C     14.93067735      1.28354724      1.73010005      4.09089934
    C     -6.35374496     13.57211421      1.73010005      4.09089934
    C      6.19257080     13.57212785      1.73010005      4.09089960
    C     -0.08057789     24.43756130      1.73010005      4.09089934
    H     12.76988996      1.09452268      1.73010005      0.94953340
    H     22.44789813     10.37218204      1.73010005      0.94953341
    H      9.57425165     14.11477691      1.73010005      0.94953321
    H      2.08020950     24.62658587      1.73010005      0.94953340
    H     -7.59779604     15.34892499      1.73010005      0.94953341
    H      5.27585043     11.60633316      1.73010005      0.94953321
    H     -5.43705133     11.60630516      1.73010005      0.94953340
    H     -2.24136670     24.62653572      1.73010005      0.94953341
    H      7.43663881     15.34892830      1.73010005      0.94953321
    H     20.28715341     14.11480187      1.73010005      0.94953340
    H     17.09146616      1.09457283      1.73010005      0.94953341
    H      7.41346327     10.37218176      1.73010005      0.94953321
    H     17.45630309      6.07373126      1.73010005      0.93113497
    H     15.79260492     11.94113786      1.73010005      0.93113489
    H     11.54314511      7.56663739      1.73010005      0.93113479
    H     -2.60620256     19.64737659      1.73010005      0.93113497
    H     -0.94250277     13.77997045      1.73010005      0.93113489
    H      3.30695583     18.15447209      1.73010005      0.93113479
    H     -3.46813677     18.15446227      1.73010005      0.93113497
    H      2.44503549     19.64736067      1.73010005      0.93113489
    H      0.78133687     13.77997031      1.73010005      0.93113479
    H     18.31823772      7.56664534      1.73010005      0.93113497
    H     12.40506504      6.07374856      1.73010005      0.93113489
    H     14.06876528     11.94113848      1.73010005      0.93113479
