   96
Geometry Step: 139
    B     -5.06419914     14.39347819      1.73010005      2.73062951
    B      4.90301364     14.39347955      1.73010005      2.73062951
    B     -0.08059417     23.03892666      1.73010005      2.73058391
    B     19.91430369     11.43072420      1.73010005      2.73062951
    B      9.94709091     11.43072541      1.73010005      2.73062951
    B     14.93069650      2.78527702      1.73010005      2.73058391
    O     16.09256190      3.55117881      1.73010005      6.23191256
    C     13.73252491      0.55298510      1.73010005      4.03186036
    C     15.63083996      4.89473606      1.73010005      3.82009092
    C     16.35199725      6.07390912      1.73010005      4.12909784
    C     15.64131742      7.29391255      1.73010005      3.99531978
    O     18.66886316     12.05123605      1.73010005      6.23182463
    C     22.44736405     11.52749654      1.73010005      4.03186191
    C     17.73920217     10.97784986      1.73010005      3.81979948
    C     16.35778041     11.01126563      1.73010005      4.12932795
    C     15.65867188      9.78488388      1.73010005      3.99526368
    O     10.02599215     10.04134667      1.73010005      6.23191374
    C      8.63020258     13.59269349      1.73010005      4.03183596
    C     11.42016676      9.76621930      1.73010005      3.82031167
    C     12.07928262      8.55111144      1.73010005      4.12899958
    C     13.49138864      8.55501322      1.73010005      3.99537491
    O     -1.24245939     22.27302458      1.73010005      6.23191256
    C      1.11757723     25.27121858      1.73010005      4.03186036
    C     -0.78073711     20.92946744      1.73010005      3.82009093
    C     -1.50189409     19.75029420      1.73010005      4.12909784
    C     -0.79121394     18.53029094      1.73010005      3.99531978
    O     -3.81875846     13.77296665      1.73010005      6.23182463
    C     -7.59725941     14.29670568      1.73010005      4.03186191
    C     -2.88909773     14.84635308      1.73010005      3.81979949
    C     -1.50767596     14.81293767      1.73010005      4.12932795
    C     -0.80856775     16.03931960      1.73010005      3.99526368
    O      4.82411206     15.78285827      1.73010005      6.23191373
    C      6.21990207     12.23151163      1.73010005      4.03183596
    C      3.42993737     16.05798530      1.73010005      3.82031167
    C      2.77082119     17.27309298      1.73010005      4.12899958
    C      1.35871517     17.26919083      1.73010005      3.99537491
    O     -4.98529792     15.78285694      1.73010005      6.23191374
    C     -6.38108746     12.23151016      1.73010005      4.03183596
    C     -3.59112332     16.05798430      1.73010005      3.82031166
    C     -2.93200750     17.27309216      1.73010005      4.12899960
    C     -1.51990148     17.26919038      1.73010005      3.99537491
    O      1.08127129     22.27302495      1.73010005      6.23191256
    C     -1.27876535     25.27121895      1.73010005      4.03186036
    C      0.61954947     20.92946767      1.73010005      3.82009092
    C      1.34070691     19.75029470      1.73010005      4.12909784
    C      0.63002722     18.53029116      1.73010005      3.99531977
    O      3.65757310     13.77296770      1.73010005      6.23182462
    C      7.43607403     14.29670712      1.73010005      4.03186191
    C      2.72791211     14.84635388      1.73010005      3.81979948
    C      1.34649035     14.81293809      1.73010005      4.12932796
    C      0.64738179     16.03931984      1.73010005      3.99526368
    O     19.83540213     10.04134547      1.73010005      6.23191374
    C     21.23119211     13.59269207      1.73010005      4.03183596
    C     18.44122745      9.76621847      1.73010005      3.82031166
    C     17.78211131      8.55111077      1.73010005      4.12899959
    C     16.37000529      8.55501292      1.73010005      3.99537491
    O     13.76883122      3.55117901      1.73010005      6.23191256
    C     16.12886749      0.55298472      1.73010005      4.03186036
    C     14.23055338      4.89473618      1.73010005      3.82009093
    C     13.50939625      6.07390935      1.73010005      4.12909784
    C     14.22007626      7.29391270      1.73010005      3.99531977
    O     11.19253160     12.05123696      1.73010005      6.23182462
    C      7.41403061     11.52749801      1.73010005      4.03186191
    C     12.12219232     10.97785054      1.73010005      3.81979948
    C     13.50361410     11.01126596      1.73010005      4.12932796
    C     14.20272233      9.78488403      1.73010005      3.99526368
    C     21.20527715     12.18660447      1.73010005      4.09047260
    C      8.65611753     12.18660588      1.73010005      4.09047260
    C     14.93069632      1.28922358      1.73010005      4.09043945
    C     -6.35517251     13.63759777      1.73010005      4.09047260
    C      6.19398712     13.63759925      1.73010005      4.09047260
    C     -0.08059418     24.53498010      1.73010005      4.09043945
    H     12.77027358      1.09122046      1.73010005      0.94984615
    H     22.47198824     10.42524522      1.73010005      0.94982534
    H      9.58261026     14.14813375      1.73010005      0.94981396
    H      2.07982856     24.73298322      1.73010005      0.94984615
    H     -7.62188359     15.39895701      1.73010005      0.94982534
    H      5.26749439     11.67607138      1.73010005      0.94981395
    H     -5.42867977     11.67606992      1.73010005      0.94981395
    H     -2.24101690     24.73298398      1.73010005      0.94984615
    H      7.46069824     15.39895845      1.73010005      0.94982534
    H     20.27878441     14.14813231      1.73010005      0.94981395
    H     17.09111903      1.09121970      1.73010005      0.94984615
    H      7.38940641     10.42524668      1.73010005      0.94982534
    H     17.45500012      6.08786806      1.73010005      0.93139070
    H     15.79291287     11.95878879      1.73010005      0.93133178
    H     11.53865036      7.58956829      1.73010005      0.93138331
    H     -2.60489696     19.73633496      1.73010005      0.93139070
    H     -0.94280817     13.86541466      1.73010005      0.93133178
    H      3.31145319     18.23463628      1.73010005      0.93138331
    H     -3.47263975     18.23463532      1.73010005      0.93138330
    H      2.44370977     19.73633595      1.73010005      0.93139070
    H      0.78162281     13.86541495      1.73010005      0.93133178
    H     18.32274331      7.58956747      1.73010005      0.93138330
    H     12.40639339      6.08786839      1.73010005      0.93139070
    H     14.06848189     11.95878896      1.73010005      0.93133178
