   96
Geometry Step: 74
    B     -5.09636440     14.43625989      1.73010005      2.72818116
    B      4.93389994     14.43627588      1.73010005      2.72818163
    B     -0.08122069     23.12274622      1.73010005      2.72818116
    B     20.06550526     11.49102855      1.73010005      2.72818116
    B     10.03524093     11.49101523      1.73010005      2.72818163
    B     15.05035925      2.80454355      1.73010005      2.72818116
    O     16.20950292      3.57874945      1.73010005      6.23377211
    C     13.85879345      0.55400309      1.73010005      4.03206934
    C     15.75016262      4.92899936      1.73010005      3.82015891
    C     16.46772403      6.11439966      1.73010005      4.12749811
    C     15.76220314      7.34024034      1.73010005      3.99504453
    O     18.81544880     12.10776779      1.73010005      6.23377174
    C     22.61030469     11.58434095      1.73010005      4.03206949
    C     17.87577444     11.03483687      1.73010005      3.82015858
    C     16.49040757     11.06355441      1.73010005      4.12749831
    C     15.78156746      9.83963042      1.73010005      3.99504468
    O     10.12615253     10.10006502      1.73010005      6.23377153
    C      8.68201831     13.64821518      1.73010005      4.03206936
    C     11.52517337      9.82274562      1.73010005      3.82015867
    C     12.19298189      8.60862164      1.73010005      4.12749853
    C     13.60735100      8.60670643      1.73010005      3.99504468
    O     -1.24036417     22.34854004      1.73010005      6.23377211
    C      1.11034490     25.37328669      1.73010005      4.03206934
    C     -0.78102352     20.99829024      1.73010005      3.82015892
    C     -1.49858461     19.81288973      1.73010005      4.12749810
    C     -0.79306338     18.58704925      1.73010005      3.99504454
    O     -3.84630778     13.81952096      1.73010005      6.23377173
    C     -7.64116372     14.34294732      1.73010005      4.03206949
    C     -2.90663369     14.89245213      1.73010005      3.82015859
    C     -1.52126681     14.86373497      1.73010005      4.12749831
    C     -0.81242703     16.08765915      1.73010005      3.99504468
    O      4.84298799     15.82722607      1.73010005      6.23377153
    C      6.28712266     12.27907611      1.73010005      4.03206936
    C      3.44396707     16.10454511      1.73010005      3.82015867
    C      2.77615821     17.31866891      1.73010005      4.12749852
    C      1.36178911     17.32058374      1.73010005      3.99504469
    O     -5.00545425     15.82721070      1.73010005      6.23377211
    C     -6.44960670     12.27906341      1.73010005      4.03206934
    C     -3.60643338     16.10453528      1.73010005      3.82015891
    C     -2.93862730     17.31866185      1.73010005      4.12749811
    C     -1.52425769     17.32058317      1.73010005      3.99504453
    O      1.07791939     22.34853519      1.73010005      6.23377173
    C     -1.27280951     25.37326336      1.73010005      4.03206949
    C      0.61857113     20.99828787      1.73010005      3.82015858
    C      1.33612468     19.81288373      1.73010005      4.12749831
    C      0.63059546     18.58704820      1.73010005      3.99504468
    O      3.68384592     13.81953252      1.73010005      6.23377153
    C      7.47870121     14.34295065      1.73010005      4.03206936
    C      2.74416985     14.89246041      1.73010005      3.82015867
    C      1.35880338     14.86373755      1.73010005      4.12749853
    C      0.64996019     16.08765951      1.73010005      3.99504468
    O     19.97459477     10.10007776      1.73010005      6.23377211
    C     21.41874767     13.64822486      1.73010005      4.03206934
    C     18.57557382      9.82275354      1.73010005      3.82015892
    C     17.90776740      8.60862715      1.73010005      4.12749810
    C     16.49339779      8.60670622      1.73010005      3.99504454
    O     13.89121936      3.57875488      1.73010005      6.23377173
    C     16.24194786      0.55402642      1.73010005      4.03206949
    C     14.35056797      4.92900209      1.73010005      3.82015858
    C     13.63301475      6.11440642      1.73010005      4.12749831
    C     14.33854429      7.34024176      1.73010005      3.99504468
    O     11.28529510     12.10775828      1.73010005      6.23377153
    C      7.49043975     11.58434064      1.73010005      4.03206936
    C     12.22497090     11.03483014      1.73010005      3.82015867
    C     13.61033738     11.06355262      1.73010005      4.12749852
    C     14.31918024      9.83963046      1.73010005      3.99504469
    C     21.36332097     12.24031785      1.73010005      4.08924068
    C      8.73742787     12.24030807      1.73010005      4.08924090
    C     15.05036334      1.30595753      1.73010005      4.08924068
    C     -6.39418000     13.68697042      1.73010005      4.08924068
    C      6.23171310     13.68698321      1.73010005      4.08924090
    C     -0.08122498     24.62133224      1.73010005      4.08924068
    H     12.89107876      1.08307947      1.73010005      0.95069651
    H     22.63594208     10.48173667      1.73010005      0.95069651
    H      9.62407715     14.22172933      1.73010005      0.95069633
    H      2.07805959     24.84421030      1.73010005      0.95069651
    H     -7.66680111     15.44555159      1.73010005      0.95069651
    H      5.34506382     11.70556196      1.73010005      0.95069633
    H     -5.50755577     11.70553610      1.73010005      0.95069652
    H     -2.24051151     24.84416384      1.73010005      0.95069651
    H      7.50434965     15.44555462      1.73010005      0.95069633
    H     20.47669673     14.22175217      1.73010005      0.95069651
    H     17.20964987      1.08312594      1.73010005      0.95069651
    H      7.46479133     10.48173667      1.73010005      0.95069633
    H     17.57099590      6.12818235      1.73010005      0.93204972
    H     15.92682710     12.01211995      1.73010005      0.93204966
    H     11.65328607      7.64626637      1.73010005      0.93204957
    H     -2.60185647     19.79910674      1.73010005      0.93204972
    H     -0.95768607     13.91516959      1.73010005      0.93204966
    H      3.31585377     18.28102433      1.73010005      0.93204957
    H     -3.47832707     18.28101466      1.73010005      0.93204972
    H      2.43939677     19.79909149      1.73010005      0.93204966
    H      0.79522718     13.91516962      1.73010005      0.93204957
    H     18.44746691      7.64627419      1.73010005      0.93204972
    H     12.52974266      6.12819897      1.73010005      0.93204966
    H     14.17391385     12.01212039      1.73010005      0.93204957
