   96
Geometry Step: 51
    B     -5.07757900     14.37800414      1.73010005      2.72982556
    B      4.91576139     14.37802108      1.73010005      2.72982602
    B     -0.08089645     23.03251484      1.73010005      2.72982556
    B     19.98720045     11.44619369      1.73010005      2.72982555
    B      9.99386002     11.44617943      1.73010005      2.72982601
    B     14.99051556      2.79168430      1.73010005      2.72982556
    O     16.15150663      3.56024694      1.73010005      6.23249350
    C     13.79448492      0.55347509      1.73010005      4.03193260
    C     15.69055820      4.90592538      1.73010005      3.82010016
    C     16.41054034      6.08709071      1.73010005      4.12859519
    C     15.70144760      7.30894995      1.73010005      3.99522764
    O     18.74110733     12.06735380      1.73010005      6.23249300
    C     22.52355236     11.52947180      1.73010005      4.03193272
    C     17.80619664     10.99531545      1.73010005      3.82009983
    C     16.42328704     11.02824632      1.73010005      4.12859540
    C     15.71968138      9.80321954      1.73010005      3.99522781
    O     10.07896097     10.05645104      1.73010005      6.23249287
    C      8.65355027     13.60108054      1.73010005      4.03193259
    C     11.47482692      9.78281049      1.73010005      3.82009990
    C     12.13775767      8.56870774      1.73010005      4.12859564
    C     13.55046464      8.57187688      1.73010005      3.99522780
    O     -1.24188732     22.26395193      1.73010005      6.23249349
    C      1.11513399     25.27072407      1.73010005      4.03193260
    C     -0.78093855     20.91827360      1.73010005      3.82010016
    C     -1.50092036     19.73710807      1.73010005      4.12859519
    C     -0.79182729     18.51524902      1.73010005      3.99522765
    O     -3.83148575     13.75684434      1.73010005      6.23249299
    C     -7.61393084     14.29472584      1.73010005      4.03193273
    C     -2.89657533     14.82888294      1.73010005      3.82009984
    C     -1.51366572     14.79595244      1.73010005      4.12859540
    C     -0.81006040     16.02097941      1.73010005      3.99522781
    O      4.83066011     15.76774943      1.73010005      6.23249286
    C      6.25607126     12.22312013      1.73010005      4.03193260
    C      3.43479407     16.04138963      1.73010005      3.82009991
    C      2.77186299     17.25549220      1.73010005      4.12859564
    C      1.35915602     17.25232267      1.73010005      3.99522780
    O     -4.99247979     15.76773320      1.73010005      6.23249349
    C     -6.41790973     12.22310660      1.73010005      4.03193260
    C     -3.59661386     16.04137938      1.73010005      3.82010016
    C     -2.93368573     17.25548486      1.73010005      4.12859519
    C     -1.52097822     17.25232215      1.73010005      3.99522764
    O      1.08009054     22.26394661      1.73010005      6.23249299
    C     -1.27695146     25.27069909      1.73010005      4.03193273
    C      0.61913344     20.91827103      1.73010005      3.82009983
    C      1.33910721     19.73710163      1.73010005      4.12859540
    C      0.63000572     18.51524787      1.73010005      3.99522781
    O      3.66967085     13.75685646      1.73010005      6.23249286
    C      7.45211541     14.29472931      1.73010005      4.03193260
    C      2.73475820     14.82889156      1.73010005      3.82009991
    C      1.35184900     14.79595505      1.73010005      4.12859564
    C      0.64824007     16.02097973      1.73010005      3.99522780
    O     19.90210086     10.05646464      1.73010005      6.23249350
    C     21.32753126     13.60109105      1.73010005      4.03193260
    C     18.50623485      9.78281882      1.73010005      3.82010016
    C     17.84330639      8.56871352      1.73010005      4.12859519
    C     16.43059888      8.57187661      1.73010005      3.99522765
    O     13.82952876      3.56025284      1.73010005      6.23249300
    C     16.18657036      0.55350007      1.73010005      4.03193272
    C     14.29048621      4.90592831      1.73010005      3.82009984
    C     13.57051276      6.08709791      1.73010005      4.12859540
    C     14.27961459      7.30895148      1.73010005      3.99522781
    O     11.23995073     12.06734372      1.73010005      6.23249287
    C      7.45750612     11.52947137      1.73010005      4.03193259
    C     12.17486311     10.99530837      1.73010005      3.82009991
    C     13.55777232     11.02824451      1.73010005      4.12859564
    C     14.26138092      9.80321963      1.73010005      3.99522780
    C     21.28354516     12.19463338      1.73010005      4.09004250
    C      8.69751817     12.19462286      1.73010005      4.09004275
    C     14.99051993      1.29479701      1.73010005      4.09004250
    C     -6.37392365     13.62956426      1.73010005      4.09004250
    C      6.21210337     13.62957780      1.73010005      4.09004274
    C     -0.08090103     24.52940217      1.73010005      4.09004250
    H     12.83044587      1.08872634      1.73010005      0.95011945
    H     22.54200254     10.42696341      1.73010005      0.95011946
    H      9.59911933     14.16832315      1.73010005      0.95011926
    H      2.07917303     24.73547282      1.73010005      0.95011945
    H     -7.63238101     15.39723423      1.73010005      0.95011946
    H      5.31050220     11.65587753      1.73010005      0.95011926
    H     -5.47234902     11.65584992      1.73010005      0.95011945
    H     -2.24097681     24.73542320      1.73010005      0.95011946
    H      7.47057742     15.39723744      1.73010005      0.95011926
    H     20.38197055     14.16834772      1.73010005      0.95011945
    H     17.15059572      1.08877596      1.73010005      0.95011946
    H      7.43904411     10.42696324      1.73010005      0.95011926
    H     17.51364311      6.10103112      1.73010005      0.93159766
    H     15.85965422     11.97658635      1.73010005      0.93159759
    H     11.59828311      7.60642000      1.73010005      0.93159749
    H     -2.60402313     19.72316735      1.73010005      0.93159766
    H     -0.95003263     13.84761257      1.73010005      0.93159759
    H      3.31133728     18.21778008      1.73010005      0.93159749
    H     -3.47316437     18.21777009      1.73010005      0.93159766
    H      2.44221018     19.72315130      1.73010005      0.93159759
    H      0.78822066     13.84761250      1.73010005      0.93159749
    H     18.38278476      7.60642814      1.73010005      0.93159766
    H     12.46740980      6.10104855      1.73010005      0.93159759
    H     14.12140092     11.97658689      1.73010005      0.93159749
