   96
Geometry Step: 162
    B     -5.05608699     14.48186635      1.73010005      2.73064531
    B      4.89554810     14.48186846      1.73010005      2.73064532
    B     -0.08027096     23.14156406      1.73010005      2.73048524
    B     19.84667208     11.44542668      1.73010005      2.73064531
    B      9.89503699     11.44542714      1.73010005      2.73064532
    B     14.87085384      2.78573025      1.73010005      2.73048524
    O     16.03257879      3.55204796      1.73010005      6.23199860
    C     13.67302197      0.55250394      1.73010005      4.03188065
    C     15.57096354      4.89593355      1.73010005      3.82014127
    C     16.29200224      6.07542814      1.73010005      4.12898713
    C     15.58180955      7.29579767      1.73010005      3.99531498
    O     18.59857874     12.06017402      1.73010005      6.23172076
    C     22.38125501     11.57878785      1.73010005      4.03188554
    C     17.67467862     10.98326718      1.73010005      3.81927006
    C     16.29378525     11.01338003      1.73010005      4.12969629
    C     15.59846123      9.78535884      1.73010005      3.99514346
    O      9.96743631     10.05555928      1.73010005      6.23198469
    C      8.61143719     13.62325830      1.73010005      4.03180136
    C     11.36126816      9.77379118      1.73010005      3.82079316
    C     12.01762701      8.55666090      1.73010005      4.12870468
    C     13.43019089      8.55682793      1.73010005      3.99549024
    O     -1.24199572     22.37524607      1.73010005      6.23199860
    C      1.11756072     25.37479037      1.73010005      4.03188065
    C     -0.78038015     21.03136059      1.73010005      3.82014128
    C     -1.50141854     19.85186580      1.73010005      4.12898713
    C     -0.79122553     18.63149646      1.73010005      3.99531498
    O     -3.80799350     13.86711931      1.73010005      6.23172076
    C     -7.59066982     14.34850501      1.73010005      4.03188554
    C     -2.88409363     14.94402639      1.73010005      3.81927006
    C     -1.50320026     14.91391391      1.73010005      4.12969629
    C     -0.80787656     16.14193528      1.73010005      3.99514346
    O      4.82314845     15.87173630      1.73010005      6.23198469
    C      6.17914801     12.30403746      1.73010005      4.03180136
    C      3.42931652     16.15350405      1.73010005      3.82079316
    C      2.77295734     17.37063415      1.73010005      4.12870468
    C      1.36039346     17.37046676      1.73010005      3.99549024
    O     -4.98368781     15.87173422      1.73010005      6.23198470
    C     -6.33968764     12.30403541      1.73010005      4.03180136
    C     -3.58985601     16.15350252      1.73010005      3.82079315
    C     -2.93349737     17.37063292      1.73010005      4.12870469
    C     -1.52093349     17.37046617      1.73010005      3.99549023
    O      1.08145401     22.37524638      1.73010005      6.23199859
    C     -1.27810262     25.37479048      1.73010005      4.03188065
    C      0.61983879     21.03136081      1.73010005      3.82014126
    C      1.34087759     19.85186629      1.73010005      4.12898714
    C      0.63068499     18.63149673      1.73010005      3.99531497
    O      3.64745486     13.86712095      1.73010005      6.23172076
    C      7.43013117     14.34850649      1.73010005      4.03188554
    C      2.72355461     14.94402764      1.73010005      3.81927005
    C      1.34266127     14.91391453      1.73010005      4.12969630
    C      0.64733704     16.14193558      1.73010005      3.99514345
    O     19.77427257     10.05555882      1.73010005      6.23198470
    C     21.13027284     13.62325745      1.73010005      4.03180136
    C     18.38044069      9.77379087      1.73010005      3.82079315
    C     17.72408172      8.55666065      1.73010005      4.12870468
    C     16.31151784      8.55682777      1.73010005      3.99549023
    O     13.70912905      3.55204821      1.73010005      6.23199859
    C     16.06868531      0.55250383      1.73010005      4.03188065
    C     14.17074460      4.89593368      1.73010005      3.82014126
    C     13.44970611      6.07542838      1.73010005      4.12898714
    C     14.15989903      7.29579777      1.73010005      3.99531497
    O     11.14313039     12.06017434      1.73010005      6.23172076
    C      7.36045403     11.57878928      1.73010005      4.03188554
    C     12.06703037     10.98326741      1.73010005      3.81927005
    C     13.44792372     11.01338016      1.73010005      4.12969630
    C     14.14324763      9.78535892      1.73010005      3.99514345
    C     21.12843141     12.21677531      1.73010005      4.09048200
    C      8.61327790     12.21677616      1.73010005      4.09048201
    C     14.87085368      1.28954277      1.73010005      4.09037778
    C     -6.33784622     13.71051756      1.73010005      4.09048200
    C      6.17730730     13.71051960      1.73010005      4.09048201
    C     -0.08027099     24.63775154      1.73010005      4.09037778
    H     12.71049323      1.09026599      1.73010005      0.94989459
    H     22.42518679     10.47714439      1.73010005      0.94982129
    H      9.57354874     14.16172134      1.73010005      0.94979119
    H      2.08008946     24.83702832      1.73010005      0.94989459
    H     -7.63460159     15.45014847      1.73010005      0.94982129
    H      5.21703645     11.76557443      1.73010005      0.94979118
    H     -5.37757640     11.76557183      1.73010005      0.94979119
    H     -2.24063141     24.83702851      1.73010005      0.94989459
    H      7.47406351     15.45014993      1.73010005      0.94982129
    H     20.16816160     14.16172102      1.73010005      0.94979119
    H     17.03121409      1.09026580      1.73010005      0.94989459
    H      7.31652169     10.47714584      1.73010005      0.94982129
    H     17.39497928      6.08926581      1.73010005      0.93144653
    H     15.72643284     11.95948186      1.73010005      0.93125627
    H     11.47453606      7.59654391      1.73010005      0.93141845
    H     -2.60439558     19.83802785      1.73010005      0.93144653
    H     -0.93584760     13.96781222      1.73010005      0.93125627
    H      3.31604804     18.33075130      1.73010005      0.93141845
    H     -3.47658850     18.33074982      1.73010005      0.93141846
    H      2.44385463     19.83802874      1.73010005      0.93144653
    H      0.77530906     13.96781257      1.73010005      0.93125626
    H     18.26717259      7.59654360      1.73010005      0.93141846
    H     12.34672908      6.08926622      1.73010005      0.93144653
    H     14.01527618     11.95948196      1.73010005      0.93125627
