   96
Geometry Step: 0
    B     -5.06823978     14.34884104      1.73010005      2.73061751
    B      4.90674903     14.34886085      1.73010005      2.73061806
    B     -0.08073056     22.98746307      1.73010005      2.73061751
    B     19.94810149     11.42381146      1.73010005      2.73061750
    B      9.97311268     11.42379435      1.73010005      2.73061806
    B     14.96058994      2.78519079      1.73010005      2.73061751
    O     16.12251399      3.55092900      1.73010005      6.23188111
    C     13.76230932      0.55321939      1.73010005      4.03185209
    C     15.66075239      4.89436187      1.73010005      3.82006675
    C     16.38195206      6.07341105      1.73010005      4.12914446
    C     15.67107137      7.29328003      1.73010005      3.99531977
    O     18.70398671     12.04719071      1.73010005      6.23188085
    C     22.48017289     11.50201507      1.73010005      4.03185243
    C     17.77142922     10.97556876      1.73010005      3.82006648
    C     16.38974342     11.01060865      1.73010005      4.12914457
    C     15.68875743      9.78502791      1.73010005      3.99532006
    O     10.05530113     10.03467004      1.73010005      6.23188050
    C      8.63933589     13.57752517      1.73010005      4.03185212
    C     11.44962936      9.76285817      1.73010005      3.82006651
    C     12.11012050      8.54876015      1.73010005      4.12914491
    C     13.52199757      8.55447398      1.73010005      3.99531990
    O     -1.24265442     22.22172455      1.73010005      6.23188111
    C      1.11754985     25.21943446      1.73010005      4.03185209
    C     -0.78089246     20.87829180      1.73010005      3.82006675
    C     -1.50209181     19.69924241      1.73010005      4.12914446
    C     -0.79121078     18.47937363      1.73010005      3.99531977
    O     -3.82412485     13.72546212      1.73010005      6.23188084
    C     -7.60031109     14.27063726      1.73010005      4.03185243
    C     -2.89156763     14.79708431      1.73010005      3.82006648
    C     -1.50988181     14.76204481      1.73010005      4.12914457
    C     -0.80889616     15.98762574      1.73010005      3.99532006
    O      4.82456023     15.73798514      1.73010005      6.23188051
    C      6.24052593     12.19513020      1.73010005      4.03185212
    C      3.43023191     16.00979665      1.73010005      3.82006652
    C      2.76974044     17.22389448      1.73010005      4.12914491
    C      1.35786336     17.21818026      1.73010005      3.99531990
    O     -4.98605306     15.73796589      1.73010005      6.23188111
    C     -6.40204339     12.19511389      1.73010005      4.03185209
    C     -3.59172526     16.00978505      1.73010005      3.82006675
    C     -2.93123854     17.22388687      1.73010005      4.12914446
    C     -1.51936067     17.21818062      1.73010005      3.99531977
    O      1.08118909     22.22171768      1.73010005      6.23188085
    C     -1.27903997     25.21940300      1.73010005      4.03185243
    C      0.61941600     20.87828824      1.73010005      3.82006648
    C      1.34060433     19.69923317      1.73010005      4.12914457
    C      0.62971326     18.47937114      1.73010005      3.99532006
    O      3.66263787     13.72547596      1.73010005      6.23188051
    C      7.43882304     14.27064162      1.73010005      4.03185212
    C      2.73007775     14.79709369      1.73010005      3.82006651
    C      1.34839246     14.76204677      1.73010005      4.12914491
    C      0.64740223     15.98762510      1.73010005      3.99531990
    O     19.86591441     10.03468663      1.73010005      6.23188111
    C     21.28190520     13.57753844      1.73010005      4.03185209
    C     18.47158654      9.76286784      1.73010005      3.82006675
    C     17.81109948      8.54876620      1.73010005      4.12914446
    C     16.39922161      8.55447284      1.73010005      3.99531977
    O     13.79867048      3.55093647      1.73010005      6.23188085
    C     16.15889915      0.55325085      1.73010005      4.03185243
    C     14.26044393      4.89436580      1.73010005      3.82006648
    C     13.53925592      6.07342106      1.73010005      4.12914457
    C     14.25014733      7.29328291      1.73010005      3.99532006
    O     11.21722400     12.04717892      1.73010005      6.23188051
    C      7.44103877     11.50201376      1.73010005      4.03185212
    C     12.14978385     10.97556094      1.73010005      3.82006652
    C     13.53146915     11.01060747      1.73010005      4.12914490
    C     14.23245904      9.78502896      1.73010005      3.99531990
    C     21.24368112     12.17180917      1.73010005      4.09046367
    C      8.67753601     12.17179602      1.73010005      4.09046408
    C     14.96059454      1.28918706      1.73010005      4.09046367
    C     -6.36381931     13.60084316      1.73010005      4.09046367
    C      6.20232580     13.60085936      1.73010005      4.09046408
    C     -0.08073536     24.48346679      1.73010005      4.09046367
    H     12.80015841      1.09160444      1.73010005      0.94982751
    H     22.49495610     10.39957488      1.73010005      0.94982754
    H      9.58667836     14.14156018      1.73010005      0.94982723
    H      2.07970076     24.68104941      1.73010005      0.94982751
    H     -7.61509428     15.37307745      1.73010005      0.94982753
    H      5.29318346     11.63109520      1.73010005      0.94982723
    H     -5.45471280     11.63105929      1.73010005      0.94982751
    H     -2.24117277     24.68098551      1.73010005      0.94982753
    H      7.45362049     15.37308176      1.73010005      0.94982723
    H     20.33457461     14.14159304      1.73010005      0.94982751
    H     17.12103194      1.09166834      1.73010005      0.94982753
    H      7.42624132     10.39957362      1.73010005      0.94982723
    H     17.48496840      6.08739515      1.73010005      0.93136768
    H     15.82611233     11.95884902      1.73010005      0.93136769
    H     11.57072929      7.58652405      1.73010005      0.93136759
    H     -2.60510814     19.68525801      1.73010005      0.93136768
    H     -0.94625046     13.81380460      1.73010005      0.93136769
    H      3.30913138     18.18613073      1.73010005      0.93136759
    H     -3.47063612     18.18611910      1.73010005      0.93136768
    H      2.44362012     19.68523451      1.73010005      0.93136769
    H      0.78476717     13.81380223      1.73010005      0.93136759
    H     18.35049679      7.58653382      1.73010005      0.93136768
    H     12.43624013      6.08742003      1.73010005      0.93136769
    H     14.09509471     11.95885186      1.73010005      0.93136759
