   96
Geometry Step: 0
    B     -5.06824250     14.34883836      1.73010005      2.73061735
    B      4.90675166     14.34885817      1.73010005      2.73061790
    B     -0.08073060     22.98745878      1.73010005      2.73061752
    B     19.94811220     11.42380933      1.73010005      2.73061735
    B      9.97311803     11.42379222      1.73010005      2.73061790
    B     14.96059797      2.78519027      1.73010005      2.73061752
    O     16.12252264      3.55092834      1.73010005      6.23188109
    C     13.76231671      0.55321929      1.73010005      4.03185203
    C     15.66076080      4.89436095      1.73010005      3.82006678
    C     16.38196085      6.07340992      1.73010005      4.12914447
    C     15.67107978      7.29327867      1.73010005      3.99531984
    O     18.70399675     12.04718846      1.73010005      6.23188116
    C     22.48018496     11.50201292      1.73010005      4.03185251
    C     17.77143876     10.97556671      1.73010005      3.82006640
    C     16.38975222     11.01060659      1.73010005      4.12914456
    C     15.68876585      9.78502608      1.73010005      3.99531997
    O     10.05530653     10.03466817      1.73010005      6.23188047
    C      8.63934052     13.57752263      1.73010005      4.03185211
    C     11.44963551      9.76285634      1.73010005      3.82006663
    C     12.11012700      8.54875855      1.73010005      4.12914485
    C     13.52200483      8.55447239      1.73010005      3.99531993
    O     -1.24265508     22.22172040      1.73010005      6.23188109
    C      1.11755045     25.21942975      1.73010005      4.03185203
    C     -0.78089288     20.87828790      1.73010005      3.82006678
    C     -1.50209262     19.69923873      1.73010005      4.12914447
    C     -0.79121120     18.47937018      1.73010005      3.99531984
    O     -3.82412690     13.72545956      1.73010005      6.23188115
    C     -7.60031517     14.27063459      1.73010005      4.03185251
    C     -2.89156918     14.79708155      1.73010005      3.82006640
    C     -1.50988263     14.76204205      1.73010005      4.12914456
    C     -0.80889660     15.98762275      1.73010005      3.99531997
    O      4.82456282     15.73798220      1.73010005      6.23188047
    C      6.24052928     12.19512792      1.73010005      4.03185211
    C      3.43023375     16.00979366      1.73010005      3.82006663
    C      2.76974192     17.22389126      1.73010005      4.12914484
    C      1.35786409     17.21817704      1.73010005      3.99531993
    O     -4.98605573     15.73796295      1.73010005      6.23188108
    C     -6.40204682     12.19511161      1.73010005      4.03185208
    C     -3.59172719     16.00978206      1.73010005      3.82006687
    C     -2.93124012     17.22388365      1.73010005      4.12914439
    C     -1.51936149     17.21817740      1.73010005      3.99531980
    O      1.08118967     22.22171353      1.73010005      6.23188082
    C     -1.27904066     25.21939829      1.73010005      4.03185237
    C      0.61941633     20.87828434      1.73010005      3.82006651
    C      1.34060505     19.69922949      1.73010005      4.12914458
    C      0.62971359     18.47936769      1.73010005      3.99532013
    O      3.66263983     13.72547340      1.73010005      6.23188082
    C      7.43882704     14.27063895      1.73010005      4.03185220
    C      2.73007921     14.79709093      1.73010005      3.82006643
    C      1.34839318     14.76204401      1.73010005      4.12914490
    C      0.64740258     15.98762211      1.73010005      3.99531981
    O     19.86592507     10.03468476      1.73010005      6.23188107
    C     21.28191662     13.57753590      1.73010005      4.03185208
    C     18.47159646      9.76286602      1.73010005      3.82006687
    C     17.81110904      8.54876460      1.73010005      4.12914439
    C     16.39923041      8.55447124      1.73010005      3.99531980
    O     13.79867789      3.55093580      1.73010005      6.23188083
    C     16.15890782      0.55325074      1.73010005      4.03185237
    C     14.26045158      4.89436488      1.73010005      3.82006651
    C     13.53926319      6.07341993      1.73010005      4.12914457
    C     14.25015498      7.29328154      1.73010005      3.99532013
    O     11.21723002     12.04717667      1.73010005      6.23188081
    C      7.44104276     11.50201161      1.73010005      4.03185221
    C     12.14979037     10.97555889      1.73010005      3.82006644
    C     13.53147641     11.01060541      1.73010005      4.12914489
    C     14.23246668      9.78502713      1.73010005      3.99531981
    C     21.24369252     12.17180690      1.73010005      4.09046366
    C      8.67754067     12.17179375      1.73010005      4.09046407
    C     14.96060257      1.28918682      1.73010005      4.09046370
    C     -6.36382273     13.60084062      1.73010005      4.09046366
    C      6.20232913     13.60085682      1.73010005      4.09046407
    C     -0.08073541     24.48346222      1.73010005      4.09046370
    H     12.80016528      1.09160424      1.73010005      0.94982746
    H     22.49496817     10.39957294      1.73010005      0.94982755
    H      9.58668350     14.14155754      1.73010005      0.94982720
    H      2.07970187     24.68104480      1.73010005      0.94982745
    H     -7.61509837     15.37307458      1.73010005      0.94982754
    H      5.29318630     11.63109303      1.73010005      0.94982720
    H     -5.45471573     11.63105712      1.73010005      0.94982748
    H     -2.24117397     24.68098090      1.73010005      0.94982748
    H      7.45362449     15.37307889      1.73010005      0.94982724
    H     20.33458553     14.14159040      1.73010005      0.94982748
    H     17.12104113      1.09166814      1.73010005      0.94982748
    H      7.42624531     10.39957168      1.73010005      0.94982724
    H     17.48497779      6.08739402      1.73010005      0.93136763
    H     15.82612083     11.95884679      1.73010005      0.93136769
    H     11.57073550      7.58652263      1.73010005      0.93136759
    H     -2.60510954     19.68525433      1.73010005      0.93136763
    H     -0.94625097     13.81380202      1.73010005      0.93136769
    H      3.30913316     18.18612733      1.73010005      0.93136759
    H     -3.47063798     18.18611570      1.73010005      0.93136768
    H      2.44362143     19.68523083      1.73010005      0.93136763
    H      0.78476759     13.81379965      1.73010005      0.93136759
    H     18.35050664      7.58653240      1.73010005      0.93136768
    H     12.43624681      6.08741889      1.73010005      0.93136763
    H     14.09510228     11.95884963      1.73010005      0.93136759
