   96
Geometry Step: 66
    B     -5.04049582     14.26121438      1.73010005      2.73286571
    B      4.87997012     14.26123101      1.73010005      2.73286610
    B     -0.08025077     22.85261347      1.73010005      2.73286571
    B     19.83107836     11.35680221      1.73010005      2.73286571
    B      9.91061242     11.35678827      1.73010005      2.73286610
    B     14.87083099      2.76540446      1.73010005      2.73286571
    O     16.03559441      3.52261301      1.73010005      6.23015940
    C     13.66569702      0.55249240      1.73010005      4.03156111
    C     15.57133153      4.85949307      1.73010005      3.81995229
    C     16.29617796      6.03222491      1.73010005      4.13079170
    C     15.57995242      7.24617008      1.73010005      3.99559325
    O     18.59293189     11.98690624      1.73010005      6.23015889
    C     22.35007369     11.41954864      1.73010005      4.03156120
    C     17.66729830     10.91639653      1.73010005      3.81995197
    C     16.28926018     10.95775702      1.73010005      4.13079191
    C     15.59607444      9.73051031      1.73010005      3.99559342
    O      9.98399435      9.96946993      1.73010005      6.23015882
    C      8.59676214     13.50692423      1.73010005      4.03156107
    C     11.37389800      9.70309907      1.73010005      3.81995204
    C     12.02709294      8.48900042      1.73010005      4.13079214
    C     13.43651251      8.50230353      1.73010005      3.99559339
    O     -1.24501400     22.09540462      1.73010005      6.23015940
    C      1.12488300     25.06552553      1.73010005      4.03156111
    C     -0.78075077     20.75852468      1.73010005      3.81995229
    C     -1.50559687     19.58579263      1.73010005      4.13079170
    C     -0.78937100     18.37184766      1.73010005      3.99559325
    O     -3.80234919     13.63111067      1.73010005      6.23015889
    C     -7.55949105     14.19846777      1.73010005      4.03156120
    C     -2.87671587     14.70162062      1.73010005      3.81995197
    C     -1.49867774     14.66026052      1.73010005      4.13079190
    C     -0.80549234     15.88750742      1.73010005      3.99559342
    O      4.80658783     15.64854932      1.73010005      6.23015882
    C      6.19382050     12.11109521      1.73010005      4.03156107
    C      3.41668410     15.91491982      1.73010005      3.81995204
    C      2.76348883     17.12901829      1.73010005      4.13079214
    C      1.35406926     17.11571479      1.73010005      3.99559340
    O     -4.96711569     15.64853336      1.73010005      6.23015940
    C     -6.35436689     12.11108171      1.73010005      4.03156111
    C     -3.57721216     15.91490994      1.73010005      3.81995229
    C     -2.92401980     17.12901128      1.73010005      4.13079170
    C     -1.51459967     17.11571435      1.73010005      3.99559325
    O      1.08450856     22.09539918      1.73010005      6.23015889
    C     -1.28540844     25.06550061      1.73010005      4.03156120
    C      0.62023675     20.75852213      1.73010005      3.81995197
    C      1.34507504     19.58578635      1.73010005      4.13079191
    C      0.62884107     18.37184654      1.73010005      3.99559342
    O      3.64182624     13.63112245      1.73010005      6.23015882
    C      7.39896764     14.19847124      1.73010005      4.03156107
    C      2.71619047     14.70162889      1.73010005      3.81995204
    C      1.33815273     14.66026296      1.73010005      4.13079214
    C      0.64496376     15.88750766      1.73010005      3.99559339
    O     19.75769788      9.96948324      1.73010005      6.23015940
    C     21.14494953     13.50693471      1.73010005      4.03156111
    C     18.36779426      9.70310703      1.73010005      3.81995229
    C     17.71460157      8.48900587      1.73010005      4.13079170
    C     16.30518144      8.50230319      1.73010005      3.99559325
    O     13.70607186      3.52261904      1.73010005      6.23015889
    C     16.07598846      0.55251731      1.73010005      4.03156120
    C     14.17034402      4.85949599      1.73010005      3.81995197
    C     13.44550605      6.03223197      1.73010005      4.13079191
    C     14.16174035      7.24617158      1.73010005      3.99559342
    O     11.14875646     11.98689650      1.73010005      6.23015882
    C      7.39161500     11.41954821      1.73010005      4.03156107
    C     12.07439196     10.91638982      1.73010005      3.81995204
    C     13.45242971     10.95775536      1.73010005      4.13079214
    C     14.14561834      9.73051047      1.73010005      3.99559340
    C     21.12421930     12.10339231      1.73010005      4.09180756
    C      8.61747434     12.10338200      1.73010005      4.09180783
    C     14.87083527      1.27221651      1.73010005      4.09180756
    C     -6.33363666     13.51462410      1.73010005      4.09180756
    C      6.17310830     13.51463744      1.73010005      4.09180783
    C     -0.08025525     24.34580142      1.73010005      4.09180756
    H     12.70934149      1.10038252      1.73010005      0.94894013
    H     22.35373681     10.31737531      1.73010005      0.94894015
    H      9.54943478     14.06119328      1.73010005      0.94893995
    H      2.08123852     24.51763541      1.73010005      0.94894013
    H     -7.56315417     15.30064110      1.73010005      0.94894015
    H      5.24114786     11.55682617      1.73010005      0.94893995
    H     -5.40170236     11.55679859      1.73010005      0.94894013
    H     -2.24175010     24.51758629      1.73010005      0.94894015
    H      7.40264243     15.30064446      1.73010005      0.94893995
    H     20.19228500     14.06121782      1.73010005      0.94894013
    H     17.03233011      1.10043164      1.73010005      0.94894015
    H      7.38794021     10.31737498      1.73010005      0.94893994
    H     17.39891435      6.04614093      1.73010005      0.93066573
    H     15.72583226     11.90579227      1.73010005      0.93066565
    H     11.48777999      7.52704245      1.73010005      0.93066556
    H     -2.60833326     19.57187631      1.73010005      0.93066574
    H     -0.93524956     13.71222543      1.73010005      0.93066565
    H      3.30280151     18.09097641      1.73010005      0.93066556
    H     -3.46333636     18.09096702      1.73010005      0.93066574
    H      2.44781160     19.57186109      1.73010005      0.93066565
    H      0.77472917     13.71222526      1.73010005      0.93066556
    H     18.25391786      7.52704998      1.73010005      0.93066574
    H     12.34276949      6.04615754      1.73010005      0.93066565
    H     14.01585353     11.90579291      1.73010005      0.93066556
