   96
Geometry Step: 0
    B     -5.06824067     14.34884355      1.73010005      2.73061741
    B      4.90674989     14.34886336      1.73010005      2.73061796
    B     -0.08073057     22.98746709      1.73010005      2.73061741
    B     19.94810498     11.42381346      1.73010005      2.73061740
    B      9.97311443     11.42379635      1.73010005      2.73061796
    B     14.96059256      2.78519127      1.73010005      2.73061740
    O     16.12251681      3.55092962      1.73010005      6.23188119
    C     13.76231173      0.55321949      1.73010005      4.03185209
    C     15.66075513      4.89436272      1.73010005      3.82006677
    C     16.38195493      6.07341211      1.73010005      4.12914444
    C     15.67107411      7.29328130      1.73010005      3.99531977
    O     18.70398998     12.04719282      1.73010005      6.23188093
    C     22.48017682     11.50201708      1.73010005      4.03185243
    C     17.77143233     10.97557068      1.73010005      3.82006650
    C     16.38974629     11.01061058      1.73010005      4.12914455
    C     15.68876018      9.78502962      1.73010005      3.99532006
    O     10.05530289     10.03467180      1.73010005      6.23188059
    C      8.63933740     13.57752755      1.73010005      4.03185212
    C     11.44963136      9.76285988      1.73010005      3.82006653
    C     12.11012262      8.54876165      1.73010005      4.12914489
    C     13.52199994      8.55447548      1.73010005      3.99531990
    O     -1.24265463     22.22172844      1.73010005      6.23188119
    C      1.11755005     25.21943887      1.73010005      4.03185209
    C     -0.78089260     20.87829545      1.73010005      3.82006677
    C     -1.50209207     19.69924586      1.73010005      4.12914444
    C     -0.79121092     18.47937686      1.73010005      3.99531977
    O     -3.82412552     13.72546452      1.73010005      6.23188093
    C     -7.60031242     14.27063976      1.73010005      4.03185244
    C     -2.89156814     14.79708690      1.73010005      3.82006651
    C     -1.50988208     14.76204739      1.73010005      4.12914454
    C     -0.80889630     15.98762854      1.73010005      3.99532006
    O      4.82456107     15.73798789      1.73010005      6.23188059
    C      6.24052702     12.19513233      1.73010005      4.03185213
    C      3.43023251     16.00979945      1.73010005      3.82006654
    C      2.76974092     17.22389749      1.73010005      4.12914489
    C      1.35786360     17.21818327      1.73010005      3.99531991
    O     -4.98605393     15.73796864      1.73010005      6.23188119
    C     -6.40204451     12.19511602      1.73010005      4.03185210
    C     -3.59172589     16.00978785      1.73010005      3.82006677
    C     -2.93123905     17.22388988      1.73010005      4.12914444
    C     -1.51936094     17.21818363      1.73010005      3.99531977
    O      1.08118928     22.22172157      1.73010005      6.23188093
    C     -1.27904020     25.21940741      1.73010005      4.03185243
    C      0.61941610     20.87829189      1.73010005      3.82006650
    C      1.34060456     19.69923662      1.73010005      4.12914455
    C      0.62971337     18.47937437      1.73010005      3.99532006
    O      3.66263851     13.72547836      1.73010005      6.23188059
    C      7.43882434     14.27064412      1.73010005      4.03185213
    C      2.73007823     14.79709628      1.73010005      3.82006654
    C      1.34839269     14.76204935      1.73010005      4.12914489
    C      0.64740234     15.98762790      1.73010005      3.99531990
    O     19.86591789     10.03468839      1.73010005      6.23188119
    C     21.28190892     13.57754082      1.73010005      4.03185209
    C     18.47158977      9.76286955      1.73010005      3.82006677
    C     17.81110260      8.54876769      1.73010005      4.12914444
    C     16.39922448      8.55447434      1.73010005      3.99531978
    O     13.79867289      3.55093709      1.73010005      6.23188093
    C     16.15890198      0.55325094      1.73010005      4.03185244
    C     14.26044643      4.89436665      1.73010005      3.82006651
    C     13.53925829      6.07342212      1.73010005      4.12914455
    C     14.25014982      7.29328418      1.73010005      3.99532007
    O     11.21722596     12.04718103      1.73010005      6.23188059
    C      7.44104007     11.50201577      1.73010005      4.03185213
    C     12.14978598     10.97556286      1.73010005      3.82006654
    C     13.53147152     11.01060940      1.73010005      4.12914488
    C     14.23246153      9.78503067      1.73010005      3.99531991
    C     21.24368484     12.17181130      1.73010005      4.09046367
    C      8.67753753     12.17179815      1.73010005      4.09046409
    C     14.96059716      1.28918729      1.73010005      4.09046367
    C     -6.36382042     13.60084554      1.73010005      4.09046367
    C      6.20232688     13.60086174      1.73010005      4.09046409
    C     -0.08073538     24.48347107      1.73010005      4.09046367
    H     12.80016065      1.09160464      1.73010005      0.94982749
    H     22.49496004     10.39957670      1.73010005      0.94982751
    H      9.58668003     14.14156265      1.73010005      0.94982721
    H      2.07970112     24.68105373      1.73010005      0.94982749
    H     -7.61509562     15.37308014      1.73010005      0.94982751
    H      5.29318438     11.63109724      1.73010005      0.94982720
    H     -5.45471375     11.63106133      1.73010005      0.94982749
    H     -2.24117316     24.68098983      1.73010005      0.94982751
    H      7.45362180     15.37308445      1.73010005      0.94982720
    H     20.33457817     14.14159551      1.73010005      0.94982749
    H     17.12103494      1.09166853      1.73010005      0.94982751
    H      7.42624262     10.39957544      1.73010005      0.94982720
    H     17.48497146      6.08739622      1.73010005      0.93136766
    H     15.82611510     11.95885111      1.73010005      0.93136767
    H     11.57073131      7.58652538      1.73010005      0.93136757
    H     -2.60510860     19.68526145      1.73010005      0.93136766
    H     -0.94625063     13.81380702      1.73010005      0.93136767
    H      3.30913196     18.18613391      1.73010005      0.93136757
    H     -3.47063673     18.18612228      1.73010005      0.93136766
    H      2.44362055     19.68523795      1.73010005      0.93136767
    H      0.78476730     13.81380465      1.73010005      0.93136757
    H     18.35050000      7.58653515      1.73010005      0.93136766
    H     12.43624231      6.08742110      1.73010005      0.93136767
    H     14.09509718     11.95885395      1.73010005      0.93136757
